# vtk DataFile Version 3.0
vtk output
ASCII
DATASET POLYDATA
POINTS 178 float
0.965517 0.811409 1.03448 1.03448 0.811409 1.03448 0.9 0.827586 1.03448 
0.896552 0.896552 1.03448 1.1 0.827586 1.03448 1.10345 0.896552 1.03448 
0.894828 0.965517 1.03448 0.896552 0.96639 1.03448 0.965517 0.98385 1.03448 
1.03448 0.98385 1.03448 1.10517 0.965517 1.03448 1.10345 0.96639 1.03448 
0.827586 0.270187 1.03448 0.896552 0.263307 1.03448 0.965517 0.259868 1.03448 
1.03448 0.259868 1.03448 1.10345 0.263307 1.03448 1.17241 0.270187 1.03448 
0.413793 0.41057 1.03448 0.482759 0.376195 1.03448 0.551724 0.346117 1.03448 
0.62069 0.320335 1.03448 0.689655 0.298851 1.03448 0.789655 0.275862 1.03448 
0.758621 0.281663 1.03448 1.21034 0.275862 1.03448 1.24138 0.281663 1.03448 
1.31034 0.298851 1.03448 1.37931 0.320335 1.03448 1.44828 0.346117 1.03448 
1.51724 0.376195 1.03448 1.58621 0.41057 1.03448 0.275862 0.518243 1.03448 
0.408046 0.413793 1.03448 0.344828 0.46101 1.03448 1.59195 0.413793 1.03448 
1.65517 0.46101 1.03448 1.72414 0.518243 1.03448 0.239185 0.551724 1.03448 
0.206897 0.595845 1.03448 1.76082 0.551724 1.03448 1.7931 0.595845 1.03448 
0.143966 0.689655 1.03448 0.137931 0.707535 1.03448 1.85603 0.689655 1.03448 
1.86207 0.707535 1.03448 0.100531 0.827586 1.03448 1.89947 0.827586 1.03448 
0.1 0.965517 1.03448 0.137931 1.09035 1.03448 1.9 0.965517 1.03448 
1.86207 1.09035 1.03448 0.142241 1.10345 1.03448 0.206897 1.20104 1.03448 
1.85776 1.10345 1.03448 1.7931 1.20104 1.03448 0.23605 1.24138 1.03448 
0.275862 1.27803 1.03448 0.344828 1.33574 1.03448 1.65517 1.33574 1.03448 
1.76395 1.24138 1.03448 1.72414 1.27803 1.03448 0.402682 1.37931 1.03448 
0.413793 1.38558 1.03448 0.482759 1.42017 1.03448 0.551724 1.45044 1.03448 
0.62069 1.47638 1.03448 0.689655 1.498 1.03448 0.758621 1.5153 1.03448 
1.24138 1.5153 1.03448 1.31034 1.498 1.03448 1.37931 1.47638 1.03448 
1.44828 1.45044 1.03448 1.51724 1.42017 1.03448 1.59732 1.37931 1.03448 
1.58621 1.38558 1.03448 0.768966 1.51724 1.03448 0.827586 1.52606 1.03448 
0.896552 1.53297 1.03448 0.965517 1.53643 1.03448 1.03448 1.53643 1.03448 
1.10345 1.53297 1.03448 1.23103 1.51724 1.03448 1.17241 1.52606 1.03448 
0.344828 0.127464 1.03448 0.413793 0.101656 1.03448 0.482759 0.0787153 1.03448 
0.551724 0.0586422 1.03448 0.62069 0.0414367 1.03448 0.689655 0.0270987 1.03448 
0.758621 0.0156284 1.03448 0.827586 0.00702559 1.03448 0.927586 0 1.03448 
0.896552 0.00129042 1.03448 1.07241 0 1.03448 1.10345 0.00129042 1.03448 
1.17241 0.00702559 1.03448 1.24138 0.0156284 1.03448 1.31034 0.0270987 1.03448 
1.37931 0.0414367 1.03448 1.44828 0.0586422 1.03448 1.51724 0.0787153 1.03448 
1.58621 0.101656 1.03448 1.65517 0.127464 1.03448 0.137931 0.238886 1.03448 
0.206897 0.197609 1.03448 0.319655 0.137931 1.03448 0.275862 0.159773 1.03448 
1.68034 0.137931 1.03448 1.72414 0.159773 1.03448 1.7931 0.197609 1.03448 
1.86207 0.238886 1.03448 0 0.345687 1.03448 0.0809019 0.275862 1.03448 
0.0689655 0.28553 1.03448 1.9191 0.275862 1.03448 1.93103 0.28553 1.03448 
2 0.345687 1.03448 0 1.45087 1.03448 0.0689655 1.5114 1.03448 
1.93103 1.5114 1.03448 2 1.45087 1.03448 0.0761273 1.51724 1.03448 
0.137931 1.55751 1.03448 0.206897 1.599 1.03448 0.275862 1.63702 1.03448 
1.72414 1.63702 1.03448 1.7931 1.599 1.03448 1.92387 1.51724 1.03448 
1.86207 1.55751 1.03448 0.312069 1.65517 1.03448 0.344828 1.66885 1.03448 
0.413793 1.69477 1.03448 0.482759 1.7178 1.03448 0.551724 1.73796 1.03448 
0.62069 1.75524 1.03448 0.689655 1.76963 1.03448 0.758621 1.78115 1.03448 
0.827586 1.78979 1.03448 1.17241 1.78979 1.03448 1.24138 1.78115 1.03448 
1.31034 1.76963 1.03448 1.37931 1.75524 1.03448 1.44828 1.73796 1.03448 
1.51724 1.7178 1.03448 1.58621 1.69477 1.03448 1.68793 1.65517 1.03448 
1.65517 1.66885 1.03448 0.867241 1.7931 1.03448 0.896552 1.7952 1.03448 
0.965517 1.79767 1.03448 1.03448 1.79767 1.03448 1.13276 1.7931 1.03448 
1.10345 1.7952 1.03448 0 0.0583554 1.03448 0.102653 0 1.03448 
0.0689655 0.0182092 1.03448 1.89735 0 1.03448 1.93103 0.0182092 1.03448 
2 0.0583554 1.03448 0 1.73825 1.03448 0.0689655 1.77856 1.03448 
1.93103 1.77856 1.03448 2 1.73825 1.03448 0.095756 1.7931 1.03448 
0.137931 1.81272 1.03448 0.206897 1.84233 1.03448 0.275862 1.86947 1.03448 
0.344828 1.89415 1.03448 0.413793 1.91635 1.03448 1.58621 1.91635 1.03448 
1.65517 1.89415 1.03448 1.72414 1.86947 1.03448 1.7931 1.84233 1.03448 
1.90424 1.7931 1.03448 1.86207 1.81272 1.03448 0.465086 1.93103 1.03448 
1.53491 1.93103 1.03448 
LINES 11 193
13 0 2 3 6 7 8 9 11 10 5 4 1 0 
73 12 23 24 22 21 20 19 18 33 34 32 38 39 42 43 46 48 49 52 53 56 57 58 62 63 64 65 66 67 68 76 77 78 79 80 81 83 82 69 70 71 72 73 75 74 59 61 60 55 54 51 50 47 45 44 41 40 37 36 35 31 30 29 28 27 26 25 17 16 15 14 13 12 
8 84 106 107 105 104 113 114 112 
10 84 85 86 87 88 89 90 91 93 92 
17 94 95 96 97 98 99 100 101 102 103 108 109 110 111 115 116 117 
36 118 119 122 123 124 125 130 131 132 133 134 135 136 137 138 148 149 150 151 153 152 139 140 141 142 143 144 145 147 146 126 127 129 128 120 121 
3 154 156 155 
3 157 158 159 
9 160 161 164 165 166 167 168 169 176 
8 162 174 175 173 172 171 170 177 
2 162 163 

POINT_DATA 178
SCALARS scalars double
LOOKUP_TABLE lookup_table
0 0 0 0 0 0 0 0 0 
0 0 0 0.4 0.4 0.4 0.4 0.4 0.4 
0.4 0.4 0.4 0.4 0.4 0.4 0.4 0.4 0.4 
0.4 0.4 0.4 0.4 0.4 0.4 0.4 0.4 0.4 
0.4 0.4 0.4 0.4 0.4 0.4 0.4 0.4 0.4 
0.4 0.4 0.4 0.4 0.4 0.4 0.4 0.4 0.4 
0.4 0.4 0.4 0.4 0.4 0.4 0.4 0.4 0.4 
0.4 0.4 0.4 0.4 0.4 0.4 0.4 0.4 0.4 
0.4 0.4 0.4 0.4 0.4 0.4 0.4 0.4 0.4 
0.4 0.4 0.4 0.8 0.8 0.8 0.8 0.8 0.8 
0.8 0.8 0.8 0.8 0.8 0.8 0.8 0.8 0.8 
0.8 0.8 0.8 0.8 0.8 0.8 0.8 0.8 0.8 
0.8 0.8 0.8 0.8 0.8 0.8 0.8 0.8 0.8 
0.8 0.8 0.8 0.8 0.8 0.8 0.8 0.8 0.8 
0.8 0.8 0.8 0.8 0.8 0.8 0.8 0.8 0.8 
0.8 0.8 0.8 0.8 0.8 0.8 0.8 0.8 0.8 
0.8 0.8 0.8 0.8 0.8 0.8 0.8 0.8 0.8 
0.8 1.2 1.2 1.2 1.2 1.2 1.2 1.2 1.2 
1.2 1.2 1.2 1.2 1.2 1.2 1.2 1.2 1.2 
1.2 1.2 1.2 1.2 1.2 1.2 1.2 
LOOKUP_TABLE lookup_table 256
1 0 0 0.247059
1 0 0 0.25098
1 0 0 0.254902
1 0.00392157 0 0.258824
1 0.00784314 0 0.258824
1 0.0117647 0 0.262745
1 0.0196078 0 0.266667
1 0.027451 0 0.266667
1 0.0352941 0 0.270588
1 0.0470588 0 0.27451
1 0.0588235 0 0.278431
1 0.0705882 0 0.278431
1 0.0823529 0 0.282353
1 0.0980392 0 0.286275
1 0.113725 0 0.290196
1 0.129412 0 0.294118
1 0.145098 0 0.294118
1 0.164706 0 0.298039
1 0.180392 0 0.301961
1 0.2 0 0.305882
1 0.223529 0 0.305882
1 0.243137 0 0.309804
1 0.262745 0 0.313725
1 0.286275 0 0.313725
1 0.309804 0 0.317647
1 0.333333 0 0.321569
1 0.356863 0 0.32549
1 0.380392 0 0.32549
1 0.403922 0 0.329412
1 0.427451 0 0.333333
1 0.45098 0 0.337255
1 0.478431 0 0.341176
1 0.501961 0 0.341176
1 0.52549 0 0.345098
1 0.54902 0 0.34902
1 0.576471 0 0.352941
1 0.6 0 0.352941
1 0.623529 0 0.356863
1 0.647059 0 0.360784
1 0.670588 0 0.360784
1 0.694118 0 0.364706
1 0.713725 0 0.368627
1 0.737255 0 0.372549
1 0.756863 0 0.372549
1 0.780392 0 0.376471
1 0.8 0 0.380392
1 0.819608 0 0.384314
1 0.835294 0 0.388235
1 0.854902 0 0.388235
1 0.870588 0 0.392157
1 0.886275 0 0.396078
1 0.901961 0 0.4
1 0.917647 0 0.4
1 0.929412 0 0.403922
1 0.941176 0 0.407843
1 0.952941 0 0.407843
1 0.960784 0 0.411765
1 0.972549 0 0.415686
1 0.976471 0 0.419608
1 0.984314 0 0.419608
1 0.988235 0 0.423529
1 0.992157 0 0.427451
1 0.996078 0 0.431373
1 0.996078 0 0.435294
0.996078 1 0 0.435294
0.996078 1 0 0.439216
0.996078 1 0 0.443137
0.992157 1 0 0.447059
0.988235 1 0 0.447059
0.980392 1 0 0.45098
0.972549 1 0 0.454902
0.964706 1 0 0.454902
0.956863 1 0 0.458824
0.945098 1 0 0.462745
0.937255 1 0 0.466667
0.921569 1 0 0.466667
0.909804 1 0 0.470588
0.894118 1 0 0.47451
0.878431 1 0 0.478431
0.862745 1 0 0.482353
0.847059 1 0 0.482353
0.827451 1 0 0.486275
0.807843 1 0 0.490196
0.788235 1 0 0.494118
0.768627 1 0 0.494118
0.74902 1 0 0.498039
0.72549 1 0 0.501961
0.705882 1 0 0.501961
0.682353 1 0 0.505882
0.658824 1 0 0.509804
0.635294 1 0 0.513725
0.611765 1 0 0.517647
0.588235 1 0 0.517647
0.560784 1 0 0.521569
0.537255 1 0 0.52549
0.513725 1 0 0.529412
0.490196 1 0 0.529412
0.462745 1 0 0.533333
0.439216 1 0 0.537255
0.415686 1 0 0.537255
0.392157 1 0 0.541176
0.368627 1 0 0.545098
0.345098 1 0 0.54902
0.321569 1 0 0.552941
0.298039 1 0 0.552941
0.27451 1 0 0.556863
0.254902 1 0 0.560784
0.231373 1 0 0.560784
0.211765 1 0 0.564706
0.192157 1 0 0.568627
0.172549 1 0 0.572549
0.152941 1 0 0.572549
0.137255 1 0 0.576471
0.121569 1 0 0.580392
0.105882 1 0 0.584314
0.0901961 1 0 0.588235
0.0745098 1 0 0.588235
0.0627451 1 0 0.592157
0.0509804 1 0 0.596078
0.0431373 1 0 0.596078
0.0313725 1 0 0.6
0.0235294 1 0 0.603922
0.0156863 1 0 0.607843
0.0117647 1 0 0.611765
0.00392157 1 0 0.611765
0 1 0 0.615686
0 1 0 0.619608
0 1 0 0.623529
0 1 0 0.623529
0 1 0 0.627451
0 1 0 0.631373
0 1 0.00392157 0.631373
0 1 0.0117647 0.635294
0 1 0.0156863 0.639216
0 1 0.0235294 0.643137
0 1 0.0313725 0.647059
0 1 0.0431373 0.647059
0 1 0.0509804 0.65098
0 1 0.0627451 0.654902
0 1 0.0745098 0.654902
0 1 0.0901961 0.658824
0 1 0.105882 0.662745
0 1 0.121569 0.666667
0 1 0.137255 0.666667
0 1 0.152941 0.670588
0 1 0.172549 0.67451
0 1 0.192157 0.678431
0 1 0.211765 0.682353
0 1 0.231373 0.682353
0 1 0.254902 0.686275
0 1 0.27451 0.690196
0 1 0.298039 0.690196
0 1 0.321569 0.694118
0 1 0.345098 0.698039
0 1 0.368627 0.701961
0 1 0.392157 0.705882
0 1 0.415686 0.705882
0 1 0.439216 0.709804
0 1 0.462745 0.713725
0 1 0.490196 0.717647
0 1 0.513725 0.717647
0 1 0.537255 0.721569
0 1 0.560784 0.72549
0 1 0.588235 0.72549
0 1 0.611765 0.729412
0 1 0.635294 0.733333
0 1 0.658824 0.737255
0 1 0.682353 0.741176
0 1 0.705882 0.741176
0 1 0.72549 0.745098
0 1 0.74902 0.74902
0 1 0.768627 0.74902
0 1 0.788235 0.752941
0 1 0.807843 0.756863
0 1 0.827451 0.760784
0 1 0.847059 0.760784
0 1 0.862745 0.764706
0 1 0.878431 0.768627
0 1 0.894118 0.772549
0 1 0.909804 0.776471
0 1 0.921569 0.776471
0 1 0.937255 0.780392
0 1 0.945098 0.784314
0 1 0.956863 0.784314
0 1 0.964706 0.788235
0 1 0.976471 0.792157
0 1 0.980392 0.796078
0 1 0.988235 0.8
0 1 0.992157 0.8
0 1 0.996078 0.803922
0 1 0.996078 0.807843
0 1 0.996078 0.811765
0 0.996078 1 0.811765
0 0.996078 1 0.815686
0 0.992157 1 0.819608
0 0.988235 1 0.819608
0 0.984314 1 0.823529
0 0.976471 1 0.827451
0 0.972549 1 0.831373
0 0.960784 1 0.835294
0 0.952941 1 0.835294
0 0.941176 1 0.839216
0 0.929412 1 0.843137
0 0.917647 1 0.843137
0 0.901961 1 0.847059
0 0.886275 1 0.85098
0 0.870588 1 0.854902
0 0.854902 1 0.854902
0 0.835294 1 0.858824
0 0.819608 1 0.862745
0 0.8 1 0.866667
0 0.780392 1 0.870588
0 0.756863 1 0.870588
0 0.737255 1 0.87451
0 0.713725 1 0.878431
0 0.694118 1 0.878431
0 0.670588 1 0.882353
0 0.647059 1 0.886275
0 0.623529 1 0.890196
0 0.6 1 0.894118
0 0.576471 1 0.894118
0 0.54902 1 0.898039
0 0.52549 1 0.901961
0 0.501961 1 0.905882
0 0.47451 1 0.905882
0 0.45098 1 0.909804
0 0.427451 1 0.913725
0 0.403922 1 0.913725
0 0.380392 1 0.917647
0 0.356863 1 0.921569
0 0.333333 1 0.92549
0 0.309804 1 0.929412
0 0.286275 1 0.929412
0 0.262745 1 0.933333
0 0.243137 1 0.937255
0 0.223529 1 0.937255
0 0.2 1 0.941176
0 0.180392 1 0.945098
0 0.164706 1 0.94902
0 0.145098 1 0.94902
0 0.129412 1 0.952941
0 0.113725 1 0.956863
0 0.0980392 1 0.960784
0 0.0823529 1 0.964706
0 0.0705882 1 0.964706
0 0.0588235 1 0.968627
0 0.0470588 1 0.972549
0 0.0352941 1 0.972549
0 0.027451 1 0.976471
0 0.0196078 1 0.980392
0 0.0117647 1 0.984314
0 0.00784314 1 0.988235
0 0.00392157 1 0.988235
0 0 1 0.992157
0 0 1 0.996078
0 0 1 1

