# vtk DataFile Version 3.0
vtk output
ASCII
DATASET POLYDATA
POINTS 400 float
0 0 5 0 0.5 4.79425 0 1 4.20735 
0 1.5 3.32498 0 2 2.27324 0 2.5 1.19694 
0 3 0.235198 0 3.5 -0.50112 0 4 -0.946004 
0 4.5 -1.08614 0 5 -0.958924 0 5.5 -0.6414 
0 6 -0.232845 0 6.5 0.165478 0 7 0.469277 
0 7.5 0.625333 0 8 0.618349 0 8.5 0.469698 
0 9 0.228954 0 9.5 -0.0395537 0.5 0 4.79425 
0.5 0.5 4.59363 0.5 1 4.02153 0.5 1.5 3.16211 
0.5 2 2.1391 0.5 2.5 1.0945 0.5 3 0.164469 
0.5 3.5 -0.54282 0.5 4 -0.963477 0.5 4.5 -1.08553 
0.5 5 -0.94683 0.5 5.5 -0.62405 0.5 6 -0.215409 
0.5 6.5 0.179342 0.5 7 0.477589 0.5 7.5 0.627701 
0.5 8 0.615653 0.5 8.5 0.463643 0.5 9 0.221566 
0.5 9.5 -0.0463868 1 0 4.20735 1 0.5 4.02153 
1 1 3.49228 1 1.5 2.6992 1 2 1.75922 
1 2.5 0.806053 1 3 -0.0327055 1 3.5 -0.656688 
1 4 -1.00815 1 4.5 -1.07895 1 5 -0.908198 
1 5.5 -0.571413 1 6 -0.163645 1 6.5 0.2198 
1 7 0.501241 1 7.5 0.633676 1 8 0.606771 
1 8.5 0.445074 1 9 0.199356 1 9.5 -0.0666648 
1.5 0 3.32498 1.5 0.5 3.16211 1.5 1 2.6992 
1.5 1.5 2.00877 1.5 2 1.19694 1.5 2.5 0.384488 
1.5 3 -0.314413 1.5 3.5 -0.811576 1.5 4 -1.05874 
1.5 4.5 -1.05358 1.5 5 -0.83698 1.5 5.5 -0.48234 
1.5 6 -0.0795245 1.5 6.5 0.283332 1.5 7 0.536401 
1.5 7.5 0.639972 1.5 8 0.589441 1.5 8.5 0.412896 
1.5 9 0.162275 1.5 9.5 -0.0996709 2 0 2.27324 
2 0.5 2.1391 2 1 1.75922 2 1.5 1.19694 
2 2 0.544596 2 2.5 -0.0936026 2 3 -0.620561 
2 3.5 -0.963477 2 4 -1.08592 2 4.5 -0.992606 
2 5 -0.726156 2 5.5 -0.356804 2 6 0.0326975 
2 6.5 0.36375 2 7 0.576781 2 7.5 0.641439 
2 8 0.560293 2 8.5 0.36565 2 9 0.110523 
2 9.5 -0.144046 2.5 0 1.19694 2.5 0.5 1.0945 
2.5 1 0.806053 2.5 1.5 0.384488 2.5 2 -0.0936026 
2.5 2.5 -0.54282 2.5 3 -0.885347 2.5 3.5 -1.06556 
2.5 4 -1.05999 2.5 4.5 -0.880655 2.5 5 -0.571413 
2.5 5.5 -0.198059 2.5 6 0.165478 2.5 6.5 0.452011 
2.5 7 0.61395 2.5 7.5 0.63161 2.5 8 0.515446 
2.5 8.5 0.302035 2.5 9 0.0449144 2.5 9.5 -0.197582 
3 0 0.235198 3 0.5 0.164469 3 1 -0.0327055 
3 1.5 -0.314413 3 2 -0.620561 3 2.5 -0.885347 
3 3 -1.05086 3 3.5 -1.07895 3 4 -0.958924 
3 4.5 -0.709509 3 5 -0.374702 3 5.5 -0.0145259 
3 6 0.307339 3 6.5 0.536401 3 7 0.637993 
3 7.5 0.603552 3 8 0.451329 3 8.5 0.221566 
3 9 -0.0326855 3 9.5 -0.257026 3.5 0 -0.50112 
3.5 0.5 -0.54282 3.5 1 -0.656688 3.5 1.5 -0.811576 
3.5 2 -0.963477 3.5 2.5 -1.06556 3.5 3 -1.07895 
3.5 3.5 -0.98183 3.5 4 -0.774981 3.5 4.5 -0.48234 
3.5 5 -0.146591 3.5 5.5 0.179342 3.5 6 0.443057 
3.5 6.5 0.603364 3.5 7 0.638631 3.5 7.5 0.551001 
3.5 8 0.36565 3.5 8.5 0.125268 3.5 9 -0.118963 
3.5 9.5 -0.317949 4 0 -0.946004 4 0.5 -0.963477 
4 1 -1.00815 4 1.5 -1.05874 4 2 -1.08592 
4 2.5 -1.05999 4 3 -0.958924 4 3.5 -0.774981 
4 4 -0.51811 4 4.5 -0.215408 4 5 0.0934333 
4 5.5 0.36375 4 6 0.554959 4 6.5 0.639072 
4 7 0.606771 4 7.5 0.469698 4 8 0.258393 
4 8.5 0.0162999 4 9 -0.208899 4 9.5 -0.374785 
4.5 0 -1.08614 4.5 0.5 -1.08553 4.5 1 -1.07895 
4.5 1.5 -1.05358 4.5 2 -0.992606 4.5 2.5 -0.880655 
4.5 3 -0.709509 4.5 3.5 -0.48234 4.5 4 -0.215408 
4.5 4.5 0.0633955 4.5 5 0.319036 4.5 5.5 0.515942 
4.5 6 0.625334 4.5 6.5 0.63161 4.5 7 0.536322 
4.5 7.5 0.358723 4.5 8 0.132656 4.5 8.5 -0.099671 
4.5 9 -0.295763 4.5 9.5 -0.42109 5 0 -0.958924 
5 0.5 -0.94683 5 1 -0.908198 5 1.5 -0.83698 
5 2 -0.726156 5 2.5 -0.571413 5 3 -0.374702 
5 3.5 -0.146591 5 4 0.0934333 5 4.5 0.319036 
5 5 0.501241 5 5.5 0.61395 5 6 0.639572 
5 6.5 0.573447 5 7 0.425941 5 7.5 0.221566 
5 8 -0.00487833 5 8.5 -0.214475 5 9 -0.371458 
5 9.5 -0.450079 5.5 0 -0.6414 5.5 0.5 -0.62405 
5.5 1 -0.571413 5.5 1.5 -0.48234 5.5 2 -0.356804 
5.5 2.5 -0.198059 5.5 3 -0.0145259 5.5 3.5 0.179342 
5.5 4 0.36375 5.5 4.5 0.515942 5.5 5 0.61395 
5.5 5.5 0.640978 5.5 6 0.589441 5.5 6.5 0.463643 
5.5 7 0.280308 5.5 7.5 0.0666196 5.5 8 -0.144046 
5.5 8.5 -0.317949 5.5 9 -0.427252 5.5 9.5 -0.455411 
6 0 -0.232845 6 0.5 -0.215409 6 1 -0.163645 
6 1.5 -0.0795245 6 2 0.0326975 6 2.5 0.165478 
6 3 0.307339 6 3.5 0.443057 6 4 0.554959 
6 4.5 0.625334 6 5 0.639572 6 5.5 0.589441 
6 6 0.475683 6 6.5 0.309229 6 7 0.110523 
6 7.5 -0.0931529 6 8 -0.272011 6 8.5 -0.398991 
6 9 -0.454871 6 9.5 -0.432184 6.5 0 0.165478 
6.5 0.5 0.179342 6.5 1 0.2198 6.5 1.5 0.283332 
6.5 2 0.36375 6.5 2.5 0.452011 6.5 3 0.536401 
6.5 3.5 0.603364 6.5 4 0.639072 6.5 4.5 0.63161 
6.5 5 0.573447 6.5 5.5 0.463643 6.5 6 0.309229 
6.5 6.5 0.125268 6.5 7 -0.0666649 6.5 7.5 -0.241505 
6.5 8 -0.374785 6.5 8.5 -0.44707 6.5 9 -0.447839 
6.5 9.5 -0.377969 7 0 0.469277 7 0.5 0.477589 
7 1 0.501241 7 1.5 0.536401 7 2 0.576781 
7 2.5 0.61395 7 3 0.637993 7 3.5 0.638631 
7 4 0.606771 7 4.5 0.536322 7 5 0.425941 
7 5.5 0.280308 7 6 0.110523 7 6.5 -0.0666649 
7 7 -0.230864 7 7.5 -0.361078 7 8 -0.439303 
7 8.5 -0.45402 7 9 -0.402849 7 9.5 -0.293726 
7.5 0 0.625333 7.5 0.5 0.627701 7.5 1 0.633676 
7.5 1.5 0.639972 7.5 2 0.641439 7.5 2.5 0.63161 
7.5 3 0.603552 7.5 3.5 0.551001 7.5 4 0.469698 
7.5 4.5 0.358723 7.5 5 0.221566 7.5 5.5 0.0666196 
7.5 6 -0.0931529 7.5 6.5 -0.241505 7.5 7 -0.361078 
7.5 7.5 -0.43619 7.5 8 -0.455759 7.5 8.5 -0.4158 
7.5 9 -0.320919 7.5 9.5 -0.184374 8 0 0.618349 
8 0.5 0.615653 8 1 0.606771 8 1.5 0.589441 
8 2 0.560293 8 2.5 0.515446 8 3 0.451329 
8 3.5 0.36565 8 4 0.258393 8 4.5 0.132656 
8 5 -0.00487833 8 5.5 -0.144046 8 6 -0.272011 
8 6.5 -0.374785 8 7 -0.439303 8 7.5 -0.455759 
8 8 -0.419765 8 8.5 -0.33387 8 9 -0.208036 
8 9.5 -0.0588185 8.5 0 0.469698 8.5 0.5 0.463643 
8.5 1 0.445074 8.5 1.5 0.412896 8.5 2 0.36565 
8.5 2.5 0.302035 8.5 3 0.221566 8.5 3.5 0.125268 
8.5 4 0.0162999 8.5 4.5 -0.099671 8.5 5 -0.214475 
8.5 5.5 -0.317949 8.5 6 -0.398991 8.5 6.5 -0.44707 
8.5 7 -0.45402 8.5 7.5 -0.4158 8.5 8 -0.33387 
8.5 8.5 -0.21583 8.5 9 -0.0750696 8.5 9.5 0.0706763 
9 0 0.228954 9 0.5 0.221566 9 1 0.199356 
9 1.5 0.162275 9 2 0.110523 9 2.5 0.0449144 
9 3 -0.0326855 9 3.5 -0.118963 9 4 -0.208899 
9 4.5 -0.295763 9 5 -0.371458 9 5.5 -0.427252 
9 6 -0.454871 9 6.5 -0.447839 9 7 -0.402849 
9 7.5 -0.320919 9 8 -0.208036 9 8.5 -0.0750696 
9 9 0.0631882 9 9.5 0.189809 9.5 0 -0.0395537 
9.5 0.5 -0.0463868 9.5 1 -0.0666648 9.5 1.5 -0.0996709 
9.5 2 -0.144046 9.5 2.5 -0.197582 9.5 3 -0.257026 
9.5 3.5 -0.317949 9.5 4 -0.374785 9.5 4.5 -0.42109 
9.5 5 -0.450079 9.5 5.5 -0.455411 9.5 6 -0.432184 
9.5 6.5 -0.377969 9.5 7 -0.293726 9.5 7.5 -0.184374 
9.5 8 -0.0588185 9.5 8.5 0.0706763 9.5 9 0.189809 
9.5 9.5 0.284132 
POLYGONS 361 1805
4 0 1 21 20 
4 1 2 22 21 
4 2 3 23 22 
4 3 4 24 23 
4 4 5 25 24 
4 5 6 26 25 
4 6 7 27 26 
4 7 8 28 27 
4 8 9 29 28 
4 9 10 30 29 
4 10 11 31 30 
4 11 12 32 31 
4 12 13 33 32 
4 13 14 34 33 
4 14 15 35 34 
4 15 16 36 35 
4 16 17 37 36 
4 17 18 38 37 
4 18 19 39 38 
4 20 21 41 40 
4 21 22 42 41 
4 22 23 43 42 
4 23 24 44 43 
4 24 25 45 44 
4 25 26 46 45 
4 26 27 47 46 
4 27 28 48 47 
4 28 29 49 48 
4 29 30 50 49 
4 30 31 51 50 
4 31 32 52 51 
4 32 33 53 52 
4 33 34 54 53 
4 34 35 55 54 
4 35 36 56 55 
4 36 37 57 56 
4 37 38 58 57 
4 38 39 59 58 
4 40 41 61 60 
4 41 42 62 61 
4 42 43 63 62 
4 43 44 64 63 
4 44 45 65 64 
4 45 46 66 65 
4 46 47 67 66 
4 47 48 68 67 
4 48 49 69 68 
4 49 50 70 69 
4 50 51 71 70 
4 51 52 72 71 
4 52 53 73 72 
4 53 54 74 73 
4 54 55 75 74 
4 55 56 76 75 
4 56 57 77 76 
4 57 58 78 77 
4 58 59 79 78 
4 60 61 81 80 
4 61 62 82 81 
4 62 63 83 82 
4 63 64 84 83 
4 64 65 85 84 
4 65 66 86 85 
4 66 67 87 86 
4 67 68 88 87 
4 68 69 89 88 
4 69 70 90 89 
4 70 71 91 90 
4 71 72 92 91 
4 72 73 93 92 
4 73 74 94 93 
4 74 75 95 94 
4 75 76 96 95 
4 76 77 97 96 
4 77 78 98 97 
4 78 79 99 98 
4 80 81 101 100 
4 81 82 102 101 
4 82 83 103 102 
4 83 84 104 103 
4 84 85 105 104 
4 85 86 106 105 
4 86 87 107 106 
4 87 88 108 107 
4 88 89 109 108 
4 89 90 110 109 
4 90 91 111 110 
4 91 92 112 111 
4 92 93 113 112 
4 93 94 114 113 
4 94 95 115 114 
4 95 96 116 115 
4 96 97 117 116 
4 97 98 118 117 
4 98 99 119 118 
4 100 101 121 120 
4 101 102 122 121 
4 102 103 123 122 
4 103 104 124 123 
4 104 105 125 124 
4 105 106 126 125 
4 106 107 127 126 
4 107 108 128 127 
4 108 109 129 128 
4 109 110 130 129 
4 110 111 131 130 
4 111 112 132 131 
4 112 113 133 132 
4 113 114 134 133 
4 114 115 135 134 
4 115 116 136 135 
4 116 117 137 136 
4 117 118 138 137 
4 118 119 139 138 
4 120 121 141 140 
4 121 122 142 141 
4 122 123 143 142 
4 123 124 144 143 
4 124 125 145 144 
4 125 126 146 145 
4 126 127 147 146 
4 127 128 148 147 
4 128 129 149 148 
4 129 130 150 149 
4 130 131 151 150 
4 131 132 152 151 
4 132 133 153 152 
4 133 134 154 153 
4 134 135 155 154 
4 135 136 156 155 
4 136 137 157 156 
4 137 138 158 157 
4 138 139 159 158 
4 140 141 161 160 
4 141 142 162 161 
4 142 143 163 162 
4 143 144 164 163 
4 144 145 165 164 
4 145 146 166 165 
4 146 147 167 166 
4 147 148 168 167 
4 148 149 169 168 
4 149 150 170 169 
4 150 151 171 170 
4 151 152 172 171 
4 152 153 173 172 
4 153 154 174 173 
4 154 155 175 174 
4 155 156 176 175 
4 156 157 177 176 
4 157 158 178 177 
4 158 159 179 178 
4 160 161 181 180 
4 161 162 182 181 
4 162 163 183 182 
4 163 164 184 183 
4 164 165 185 184 
4 165 166 186 185 
4 166 167 187 186 
4 167 168 188 187 
4 168 169 189 188 
4 169 170 190 189 
4 170 171 191 190 
4 171 172 192 191 
4 172 173 193 192 
4 173 174 194 193 
4 174 175 195 194 
4 175 176 196 195 
4 176 177 197 196 
4 177 178 198 197 
4 178 179 199 198 
4 180 181 201 200 
4 181 182 202 201 
4 182 183 203 202 
4 183 184 204 203 
4 184 185 205 204 
4 185 186 206 205 
4 186 187 207 206 
4 187 188 208 207 
4 188 189 209 208 
4 189 190 210 209 
4 190 191 211 210 
4 191 192 212 211 
4 192 193 213 212 
4 193 194 214 213 
4 194 195 215 214 
4 195 196 216 215 
4 196 197 217 216 
4 197 198 218 217 
4 198 199 219 218 
4 200 201 221 220 
4 201 202 222 221 
4 202 203 223 222 
4 203 204 224 223 
4 204 205 225 224 
4 205 206 226 225 
4 206 207 227 226 
4 207 208 228 227 
4 208 209 229 228 
4 209 210 230 229 
4 210 211 231 230 
4 211 212 232 231 
4 212 213 233 232 
4 213 214 234 233 
4 214 215 235 234 
4 215 216 236 235 
4 216 217 237 236 
4 217 218 238 237 
4 218 219 239 238 
4 220 221 241 240 
4 221 222 242 241 
4 222 223 243 242 
4 223 224 244 243 
4 224 225 245 244 
4 225 226 246 245 
4 226 227 247 246 
4 227 228 248 247 
4 228 229 249 248 
4 229 230 250 249 
4 230 231 251 250 
4 231 232 252 251 
4 232 233 253 252 
4 233 234 254 253 
4 234 235 255 254 
4 235 236 256 255 
4 236 237 257 256 
4 237 238 258 257 
4 238 239 259 258 
4 240 241 261 260 
4 241 242 262 261 
4 242 243 263 262 
4 243 244 264 263 
4 244 245 265 264 
4 245 246 266 265 
4 246 247 267 266 
4 247 248 268 267 
4 248 249 269 268 
4 249 250 270 269 
4 250 251 271 270 
4 251 252 272 271 
4 252 253 273 272 
4 253 254 274 273 
4 254 255 275 274 
4 255 256 276 275 
4 256 257 277 276 
4 257 258 278 277 
4 258 259 279 278 
4 260 261 281 280 
4 261 262 282 281 
4 262 263 283 282 
4 263 264 284 283 
4 264 265 285 284 
4 265 266 286 285 
4 266 267 287 286 
4 267 268 288 287 
4 268 269 289 288 
4 269 270 290 289 
4 270 271 291 290 
4 271 272 292 291 
4 272 273 293 292 
4 273 274 294 293 
4 274 275 295 294 
4 275 276 296 295 
4 276 277 297 296 
4 277 278 298 297 
4 278 279 299 298 
4 280 281 301 300 
4 281 282 302 301 
4 282 283 303 302 
4 283 284 304 303 
4 284 285 305 304 
4 285 286 306 305 
4 286 287 307 306 
4 287 288 308 307 
4 288 289 309 308 
4 289 290 310 309 
4 290 291 311 310 
4 291 292 312 311 
4 292 293 313 312 
4 293 294 314 313 
4 294 295 315 314 
4 295 296 316 315 
4 296 297 317 316 
4 297 298 318 317 
4 298 299 319 318 
4 300 301 321 320 
4 301 302 322 321 
4 302 303 323 322 
4 303 304 324 323 
4 304 305 325 324 
4 305 306 326 325 
4 306 307 327 326 
4 307 308 328 327 
4 308 309 329 328 
4 309 310 330 329 
4 310 311 331 330 
4 311 312 332 331 
4 312 313 333 332 
4 313 314 334 333 
4 314 315 335 334 
4 315 316 336 335 
4 316 317 337 336 
4 317 318 338 337 
4 318 319 339 338 
4 320 321 341 340 
4 321 322 342 341 
4 322 323 343 342 
4 323 324 344 343 
4 324 325 345 344 
4 325 326 346 345 
4 326 327 347 346 
4 327 328 348 347 
4 328 329 349 348 
4 329 330 350 349 
4 330 331 351 350 
4 331 332 352 351 
4 332 333 353 352 
4 333 334 354 353 
4 334 335 355 354 
4 335 336 356 355 
4 336 337 357 356 
4 337 338 358 357 
4 338 339 359 358 
4 340 341 361 360 
4 341 342 362 361 
4 342 343 363 362 
4 343 344 364 363 
4 344 345 365 364 
4 345 346 366 365 
4 346 347 367 366 
4 347 348 368 367 
4 348 349 369 368 
4 349 350 370 369 
4 350 351 371 370 
4 351 352 372 371 
4 352 353 373 372 
4 353 354 374 373 
4 354 355 375 374 
4 355 356 376 375 
4 356 357 377 376 
4 357 358 378 377 
4 358 359 379 378 
4 360 361 381 380 
4 361 362 382 381 
4 362 363 383 382 
4 363 364 384 383 
4 364 365 385 384 
4 365 366 386 385 
4 366 367 387 386 
4 367 368 388 387 
4 368 369 389 388 
4 369 370 390 389 
4 370 371 391 390 
4 371 372 392 391 
4 372 373 393 392 
4 373 374 394 393 
4 374 375 395 394 
4 375 376 396 395 
4 376 377 397 396 
4 377 378 398 397 
4 378 379 399 398 

POINT_DATA 400
SCALARS scalars float
LOOKUP_TABLE lookup_table
5 4.79425 4.20735 3.32498 2.27324 1.19694 0.235198 -0.50112 -0.946004 
-1.08614 -0.958924 -0.6414 -0.232845 0.165478 0.469277 0.625333 0.618349 0.469698 
0.228954 -0.0395537 4.79425 4.59363 4.02153 3.16211 2.1391 1.0945 0.164469 
-0.54282 -0.963477 -1.08553 -0.94683 -0.62405 -0.215409 0.179342 0.477589 0.627701 
0.615653 0.463643 0.221566 -0.0463868 4.20735 4.02153 3.49228 2.6992 1.75922 
0.806053 -0.0327055 -0.656688 -1.00815 -1.07895 -0.908198 -0.571413 -0.163645 0.2198 
0.501241 0.633676 0.606771 0.445074 0.199356 -0.0666648 3.32498 3.16211 2.6992 
2.00877 1.19694 0.384488 -0.314413 -0.811576 -1.05874 -1.05358 -0.83698 -0.48234 
-0.0795245 0.283332 0.536401 0.639972 0.589441 0.412896 0.162275 -0.0996709 2.27324 
2.1391 1.75922 1.19694 0.544596 -0.0936026 -0.620561 -0.963477 -1.08592 -0.992606 
-0.726156 -0.356804 0.0326975 0.36375 0.576781 0.641439 0.560293 0.36565 0.110523 
-0.144046 1.19694 1.0945 0.806053 0.384488 -0.0936026 -0.54282 -0.885347 -1.06556 
-1.05999 -0.880655 -0.571413 -0.198059 0.165478 0.452011 0.61395 0.63161 0.515446 
0.302035 0.0449144 -0.197582 0.235198 0.164469 -0.0327055 -0.314413 -0.620561 -0.885347 
-1.05086 -1.07895 -0.958924 -0.709509 -0.374702 -0.0145259 0.307339 0.536401 0.637993 
0.603552 0.451329 0.221566 -0.0326855 -0.257026 -0.50112 -0.54282 -0.656688 -0.811576 
-0.963477 -1.06556 -1.07895 -0.98183 -0.774981 -0.48234 -0.146591 0.179342 0.443057 
0.603364 0.638631 0.551001 0.36565 0.125268 -0.118963 -0.317949 -0.946004 -0.963477 
-1.00815 -1.05874 -1.08592 -1.05999 -0.958924 -0.774981 -0.51811 -0.215408 0.0934333 
0.36375 0.554959 0.639072 0.606771 0.469698 0.258393 0.0162999 -0.208899 -0.374785 
-1.08614 -1.08553 -1.07895 -1.05358 -0.992606 -0.880655 -0.709509 -0.48234 -0.215408 
0.0633955 0.319036 0.515942 0.625334 0.63161 0.536322 0.358723 0.132656 -0.099671 
-0.295763 -0.42109 -0.958924 -0.94683 -0.908198 -0.83698 -0.726156 -0.571413 -0.374702 
-0.146591 0.0934333 0.319036 0.501241 0.61395 0.639572 0.573447 0.425941 0.221566 
-0.00487833 -0.214475 -0.371458 -0.450079 -0.6414 -0.62405 -0.571413 -0.48234 -0.356804 
-0.198059 -0.0145259 0.179342 0.36375 0.515942 0.61395 0.640978 0.589441 0.463643 
0.280308 0.0666196 -0.144046 -0.317949 -0.427252 -0.455411 -0.232845 -0.215409 -0.163645 
-0.0795245 0.0326975 0.165478 0.307339 0.443057 0.554959 0.625334 0.639572 0.589441 
0.475683 0.309229 0.110523 -0.0931529 -0.272011 -0.398991 -0.454871 -0.432184 0.165478 
0.179342 0.2198 0.283332 0.36375 0.452011 0.536401 0.603364 0.639072 0.63161 
0.573447 0.463643 0.309229 0.125268 -0.0666649 -0.241505 -0.374785 -0.44707 -0.447839 
-0.377969 0.469277 0.477589 0.501241 0.536401 0.576781 0.61395 0.637993 0.638631 
0.606771 0.536322 0.425941 0.280308 0.110523 -0.0666649 -0.230864 -0.361078 -0.439303 
-0.45402 -0.402849 -0.293726 0.625333 0.627701 0.633676 0.639972 0.641439 0.63161 
0.603552 0.551001 0.469698 0.358723 0.221566 0.0666196 -0.0931529 -0.241505 -0.361078 
-0.43619 -0.455759 -0.4158 -0.320919 -0.184374 0.618349 0.615653 0.606771 0.589441 
0.560293 0.515446 0.451329 0.36565 0.258393 0.132656 -0.00487833 -0.144046 -0.272011 
-0.374785 -0.439303 -0.455759 -0.419765 -0.33387 -0.208036 -0.0588185 0.469698 0.463643 
0.445074 0.412896 0.36565 0.302035 0.221566 0.125268 0.0162999 -0.099671 -0.214475 
-0.317949 -0.398991 -0.44707 -0.45402 -0.4158 -0.33387 -0.21583 -0.0750696 0.0706763 
0.228954 0.221566 0.199356 0.162275 0.110523 0.0449144 -0.0326855 -0.118963 -0.208899 
-0.295763 -0.371458 -0.427252 -0.454871 -0.447839 -0.402849 -0.320919 -0.208036 -0.0750696 
0.0631882 0.189809 -0.0395537 -0.0463868 -0.0666648 -0.0996709 -0.144046 -0.197582 -0.257026 
-0.317949 -0.374785 -0.42109 -0.450079 -0.455411 -0.432184 -0.377969 -0.293726 -0.184374 
-0.0588185 0.0706763 0.189809 0.284132 
LOOKUP_TABLE lookup_table 256
1 0 0 0.247059
1 0 0 0.25098
1 0 0 0.254902
1 0.00392157 0 0.258824
1 0.00784314 0 0.258824
1 0.0117647 0 0.262745
1 0.0196078 0 0.266667
1 0.027451 0 0.266667
1 0.0352941 0 0.270588
1 0.0470588 0 0.27451
1 0.0588235 0 0.278431
1 0.0705882 0 0.278431
1 0.0823529 0 0.282353
1 0.0980392 0 0.286275
1 0.113725 0 0.290196
1 0.129412 0 0.294118
1 0.145098 0 0.294118
1 0.164706 0 0.298039
1 0.180392 0 0.301961
1 0.2 0 0.305882
1 0.223529 0 0.305882
1 0.243137 0 0.309804
1 0.262745 0 0.313725
1 0.286275 0 0.313725
1 0.309804 0 0.317647
1 0.333333 0 0.321569
1 0.356863 0 0.32549
1 0.380392 0 0.32549
1 0.403922 0 0.329412
1 0.427451 0 0.333333
1 0.45098 0 0.337255
1 0.478431 0 0.341176
1 0.501961 0 0.341176
1 0.52549 0 0.345098
1 0.54902 0 0.34902
1 0.576471 0 0.352941
1 0.6 0 0.352941
1 0.623529 0 0.356863
1 0.647059 0 0.360784
1 0.670588 0 0.360784
1 0.694118 0 0.364706
1 0.713725 0 0.368627
1 0.737255 0 0.372549
1 0.756863 0 0.372549
1 0.780392 0 0.376471
1 0.8 0 0.380392
1 0.819608 0 0.384314
1 0.835294 0 0.388235
1 0.854902 0 0.388235
1 0.870588 0 0.392157
1 0.886275 0 0.396078
1 0.901961 0 0.4
1 0.917647 0 0.4
1 0.929412 0 0.403922
1 0.941176 0 0.407843
1 0.952941 0 0.407843
1 0.960784 0 0.411765
1 0.972549 0 0.415686
1 0.976471 0 0.419608
1 0.984314 0 0.419608
1 0.988235 0 0.423529
1 0.992157 0 0.427451
1 0.996078 0 0.431373
1 0.996078 0 0.435294
0.996078 1 0 0.435294
0.996078 1 0 0.439216
0.996078 1 0 0.443137
0.992157 1 0 0.447059
0.988235 1 0 0.447059
0.980392 1 0 0.45098
0.972549 1 0 0.454902
0.964706 1 0 0.454902
0.956863 1 0 0.458824
0.945098 1 0 0.462745
0.937255 1 0 0.466667
0.921569 1 0 0.466667
0.909804 1 0 0.470588
0.894118 1 0 0.47451
0.878431 1 0 0.478431
0.862745 1 0 0.482353
0.847059 1 0 0.482353
0.827451 1 0 0.486275
0.807843 1 0 0.490196
0.788235 1 0 0.494118
0.768627 1 0 0.494118
0.74902 1 0 0.498039
0.72549 1 0 0.501961
0.705882 1 0 0.501961
0.682353 1 0 0.505882
0.658824 1 0 0.509804
0.635294 1 0 0.513725
0.611765 1 0 0.517647
0.588235 1 0 0.517647
0.560784 1 0 0.521569
0.537255 1 0 0.52549
0.513725 1 0 0.529412
0.490196 1 0 0.529412
0.462745 1 0 0.533333
0.439216 1 0 0.537255
0.415686 1 0 0.537255
0.392157 1 0 0.541176
0.368627 1 0 0.545098
0.345098 1 0 0.54902
0.321569 1 0 0.552941
0.298039 1 0 0.552941
0.27451 1 0 0.556863
0.254902 1 0 0.560784
0.231373 1 0 0.560784
0.211765 1 0 0.564706
0.192157 1 0 0.568627
0.172549 1 0 0.572549
0.152941 1 0 0.572549
0.137255 1 0 0.576471
0.121569 1 0 0.580392
0.105882 1 0 0.584314
0.0901961 1 0 0.588235
0.0745098 1 0 0.588235
0.0627451 1 0 0.592157
0.0509804 1 0 0.596078
0.0431373 1 0 0.596078
0.0313725 1 0 0.6
0.0235294 1 0 0.603922
0.0156863 1 0 0.607843
0.0117647 1 0 0.611765
0.00392157 1 0 0.611765
0 1 0 0.615686
0 1 0 0.619608
0 1 0 0.623529
0 1 0 0.623529
0 1 0 0.627451
0 1 0 0.631373
0 1 0.00392157 0.631373
0 1 0.0117647 0.635294
0 1 0.0156863 0.639216
0 1 0.0235294 0.643137
0 1 0.0313725 0.647059
0 1 0.0431373 0.647059
0 1 0.0509804 0.65098
0 1 0.0627451 0.654902
0 1 0.0745098 0.654902
0 1 0.0901961 0.658824
0 1 0.105882 0.662745
0 1 0.121569 0.666667
0 1 0.137255 0.666667
0 1 0.152941 0.670588
0 1 0.172549 0.67451
0 1 0.192157 0.678431
0 1 0.211765 0.682353
0 1 0.231373 0.682353
0 1 0.254902 0.686275
0 1 0.27451 0.690196
0 1 0.298039 0.690196
0 1 0.321569 0.694118
0 1 0.345098 0.698039
0 1 0.368627 0.701961
0 1 0.392157 0.705882
0 1 0.415686 0.705882
0 1 0.439216 0.709804
0 1 0.462745 0.713725
0 1 0.490196 0.717647
0 1 0.513725 0.717647
0 1 0.537255 0.721569
0 1 0.560784 0.72549
0 1 0.588235 0.72549
0 1 0.611765 0.729412
0 1 0.635294 0.733333
0 1 0.658824 0.737255
0 1 0.682353 0.741176
0 1 0.705882 0.741176
0 1 0.72549 0.745098
0 1 0.74902 0.74902
0 1 0.768627 0.74902
0 1 0.788235 0.752941
0 1 0.807843 0.756863
0 1 0.827451 0.760784
0 1 0.847059 0.760784
0 1 0.862745 0.764706
0 1 0.878431 0.768627
0 1 0.894118 0.772549
0 1 0.909804 0.776471
0 1 0.921569 0.776471
0 1 0.937255 0.780392
0 1 0.945098 0.784314
0 1 0.956863 0.784314
0 1 0.964706 0.788235
0 1 0.976471 0.792157
0 1 0.980392 0.796078
0 1 0.988235 0.8
0 1 0.992157 0.8
0 1 0.996078 0.803922
0 1 0.996078 0.807843
0 1 0.996078 0.811765
0 0.996078 1 0.811765
0 0.996078 1 0.815686
0 0.992157 1 0.819608
0 0.988235 1 0.819608
0 0.984314 1 0.823529
0 0.976471 1 0.827451
0 0.972549 1 0.831373
0 0.960784 1 0.835294
0 0.952941 1 0.835294
0 0.941176 1 0.839216
0 0.929412 1 0.843137
0 0.917647 1 0.843137
0 0.901961 1 0.847059
0 0.886275 1 0.85098
0 0.870588 1 0.854902
0 0.854902 1 0.854902
0 0.835294 1 0.858824
0 0.819608 1 0.862745
0 0.8 1 0.866667
0 0.780392 1 0.870588
0 0.756863 1 0.870588
0 0.737255 1 0.87451
0 0.713725 1 0.878431
0 0.694118 1 0.878431
0 0.670588 1 0.882353
0 0.647059 1 0.886275
0 0.623529 1 0.890196
0 0.6 1 0.894118
0 0.576471 1 0.894118
0 0.54902 1 0.898039
0 0.52549 1 0.901961
0 0.501961 1 0.905882
0 0.47451 1 0.905882
0 0.45098 1 0.909804
0 0.427451 1 0.913725
0 0.403922 1 0.913725
0 0.380392 1 0.917647
0 0.356863 1 0.921569
0 0.333333 1 0.92549
0 0.309804 1 0.929412
0 0.286275 1 0.929412
0 0.262745 1 0.933333
0 0.243137 1 0.937255
0 0.223529 1 0.937255
0 0.2 1 0.941176
0 0.180392 1 0.945098
0 0.164706 1 0.94902
0 0.145098 1 0.94902
0 0.129412 1 0.952941
0 0.113725 1 0.956863
0 0.0980392 1 0.960784
0 0.0823529 1 0.964706
0 0.0705882 1 0.964706
0 0.0588235 1 0.968627
0 0.0470588 1 0.972549
0 0.0352941 1 0.972549
0 0.027451 1 0.976471
0 0.0196078 1 0.980392
0 0.0117647 1 0.984314
0 0.00784314 1 0.988235
0 0.00392157 1 0.988235
0 0 1 0.992157
0 0 1 0.996078
0 0 1 1

